<?xml version="1.0" encoding="UTF-8"?>

<!-- generated on 2024-04-16 23:55:36 by Eclipse SUMO GUI Version 1.19.0
<configuration xmlns:xsi="http://www.w3.org/2001/XMLSchema-instance" xsi:noNamespaceSchemaLocation="http://sumo.dlr.de/xsd/sumoConfiguration.xsd">

    <input>
        <net-file value=".\new_osm.net.xml"/>
        <route-files value=".\passenger.sampled.rou.xml"/>
        <additional-files value=".\osm.poly.xml.gz"/>
    </input>

    <output>
        <tripinfo-output value=".\tripinfo.xml"/>
        <statistic-output value=".\stats.xml"/>
    </output>

    <processing>
        <ignore-route-errors value="true"/>
    </processing>

    <routing>
        <routing-algorithm value="astar"/>
        <device.rerouting.adaptation-steps value="18"/>
        <device.rerouting.adaptation-interval value="10"/>
    </routing>

    <report>
        <verbose value="true"/>
        <duration-log.statistics value="true"/>
        <no-step-log value="true"/>
    </report>

    <gui_only>
        <gui-settings-file value=".\osm.view.xml"/>
    </gui_only>

</configuration>
-->

<tripinfos xmlns:xsi="http://www.w3.org/2001/XMLSchema-instance" xsi:noNamespaceSchemaLocation="http://sumo.dlr.de/xsd/tripinfo_file.xsd">
    <tripinfo id="3" depart="3.00" departLane="449379869#5_0" departPos="5.10" departSpeed="0.00" departDelay="0.62" arrival="216.00" arrivalLane="-1238557272#1_0" arrivalPos="32.20" arrivalSpeed="12.90" duration="213.00" routeLength="1836.37" waitingTime="69.00" waitingCount="3" stopTime="0.00" timeLoss="113.51" rerouteNo="0" devices="tripinfo_3" vType="DEFAULT_VEHTYPE" speedFactor="1.08" vaporized=""/>
    <tripinfo id="5" depart="7.00" departLane="340670792#1_0" departPos="5.10" departSpeed="0.00" departDelay="0.85" arrival="221.00" arrivalLane="48769273#2_0" arrivalPos="75.40" arrivalSpeed="11.18" duration="214.00" routeLength="2326.42" waitingTime="10.00" waitingCount="2" stopTime="0.00" timeLoss="48.25" rerouteNo="0" devices="tripinfo_5" vType="DEFAULT_VEHTYPE" speedFactor="0.83" vaporized=""/>
    <tripinfo id="33" depart="43.00" departLane="449379869#5_0" departPos="5.10" departSpeed="0.00" departDelay="0.22" arrival="232.00" arrivalLane="-1238557272#1_0" arrivalPos="32.20" arrivalSpeed="13.55" duration="189.00" routeLength="2111.34" waitingTime="52.00" waitingCount="2" stopTime="0.00" timeLoss="97.40" rerouteNo="0" devices="tripinfo_33" vType="DEFAULT_VEHTYPE" speedFactor="1.17" vaporized=""/>
    <tripinfo id="78" depart="99.00" departLane="242316143_0" departPos="5.10" departSpeed="0.00" departDelay="0.65" arrival="241.00" arrivalLane="449379853#1_0" arrivalPos="7.70" arrivalSpeed="12.85" duration="142.00" routeLength="1205.39" waitingTime="31.00" waitingCount="2" stopTime="0.00" timeLoss="56.64" rerouteNo="0" devices="tripinfo_78" vType="DEFAULT_VEHTYPE" speedFactor="1.01" vaporized=""/>
    <tripinfo id="71" depart="91.00" departLane="158978976#9_0" departPos="5.10" departSpeed="0.00" departDelay="0.33" arrival="243.00" arrivalLane="78380752_0" arrivalPos="501.16" arrivalSpeed="27.02" duration="152.00" routeLength="1455.74" waitingTime="49.00" waitingCount="4" stopTime="0.00" timeLoss="98.06" rerouteNo="0" devices="tripinfo_71" vType="DEFAULT_VEHTYPE" speedFactor="0.97" vaporized=""/>
    <tripinfo id="116" depart="147.00" departLane="242316143_0" departPos="5.10" departSpeed="0.00" departDelay="0.55" arrival="244.00" arrivalLane="449379853#1_0" arrivalPos="7.70" arrivalSpeed="14.61" duration="97.00" routeLength="1192.07" waitingTime="0.00" waitingCount="0" stopTime="0.00" timeLoss="29.43" rerouteNo="0" devices="tripinfo_116" vType="DEFAULT_VEHTYPE" speedFactor="1.18" vaporized=""/>
    <tripinfo id="73" depart="94.00" departLane="158978976#9_0" departPos="5.10" departSpeed="0.00" departDelay="2.86" arrival="245.00" arrivalLane="78380752_0" arrivalPos="501.16" arrivalSpeed="28.41" duration="151.00" routeLength="1455.74" waitingTime="44.00" waitingCount="4" stopTime="0.00" timeLoss="100.69" rerouteNo="0" devices="tripinfo_73" vType="DEFAULT_VEHTYPE" speedFactor="1.06" vaporized=""/>
    <tripinfo id="110" depart="142.00" departLane="242316143_0" departPos="5.10" departSpeed="0.00" departDelay="3.05" arrival="246.00" arrivalLane="449379853#1_0" arrivalPos="7.70" arrivalSpeed="12.06" duration="104.00" routeLength="1192.07" waitingTime="0.00" waitingCount="0" stopTime="0.00" timeLoss="18.51" rerouteNo="0" devices="tripinfo_110" vType="DEFAULT_VEHTYPE" speedFactor="0.93" vaporized=""/>
    <tripinfo id="109" depart="139.00" departLane="242316143_0" departPos="5.10" departSpeed="0.00" departDelay="0.53" arrival="249.00" arrivalLane="449379853#1_0" arrivalPos="7.70" arrivalSpeed="13.07" duration="110.00" routeLength="1205.39" waitingTime="0.00" waitingCount="0" stopTime="0.00" timeLoss="20.56" rerouteNo="0" devices="tripinfo_109" vType="DEFAULT_VEHTYPE" speedFactor="0.96" vaporized=""/>
    <tripinfo id="16" depart="26.00" departLane="195673600#9_0" departPos="5.10" departSpeed="0.00" departDelay="0.77" arrival="250.00" arrivalLane="444625978_0" arrivalPos="44.58" arrivalSpeed="11.88" duration="224.00" routeLength="2341.94" waitingTime="62.00" waitingCount="4" stopTime="0.00" timeLoss="110.07" rerouteNo="0" devices="tripinfo_16" vType="DEFAULT_VEHTYPE" speedFactor="0.88" vaporized=""/>
    <tripinfo id="45" depart="57.00" departLane="-62080947#0_0" departPos="5.10" departSpeed="0.00" departDelay="0.52" arrival="250.00" arrivalLane="48769273#1-AddedOnRampEdge_1" arrivalPos="95.35" arrivalSpeed="14.63" duration="193.00" routeLength="2347.20" waitingTime="30.00" waitingCount="2" stopTime="0.00" timeLoss="73.67" rerouteNo="0" devices="tripinfo_45" vType="DEFAULT_VEHTYPE" speedFactor="1.09" vaporized=""/>
    <tripinfo id="49" depart="62.00" departLane="183865668#1_0" departPos="5.10" departSpeed="0.00" departDelay="0.90" arrival="256.00" arrivalLane="33072357#1_0" arrivalPos="870.64" arrivalSpeed="22.95" duration="194.00" routeLength="2288.93" waitingTime="19.00" waitingCount="3" stopTime="0.00" timeLoss="68.68" rerouteNo="0" devices="tripinfo_49" vType="DEFAULT_VEHTYPE" speedFactor="0.85" vaporized=""/>
    <tripinfo id="0" depart="2.00" departLane="183397040#0_0" departPos="5.10" departSpeed="0.00" departDelay="0.86" arrival="257.00" arrivalLane="33072357#1_0" arrivalPos="870.64" arrivalSpeed="24.00" duration="255.00" routeLength="2736.46" waitingTime="44.00" waitingCount="4" stopTime="0.00" timeLoss="108.42" rerouteNo="0" devices="tripinfo_0" vType="DEFAULT_VEHTYPE" speedFactor="1.06" vaporized=""/>
    <tripinfo id="70" depart="90.00" departLane="183865668#1_0" departPos="5.10" departSpeed="0.00" departDelay="0.60" arrival="259.00" arrivalLane="33072357#1_0" arrivalPos="870.64" arrivalSpeed="26.20" duration="169.00" routeLength="2283.26" waitingTime="6.00" waitingCount="1" stopTime="0.00" timeLoss="62.83" rerouteNo="0" devices="tripinfo_70" vType="DEFAULT_VEHTYPE" speedFactor="1.02" vaporized=""/>
    <tripinfo id="10" depart="11.00" departLane="183397040#0_0" departPos="5.10" departSpeed="0.00" departDelay="0.79" arrival="260.00" arrivalLane="33072357#1_0" arrivalPos="870.64" arrivalSpeed="26.65" duration="249.00" routeLength="2749.41" waitingTime="31.00" waitingCount="5" stopTime="0.00" timeLoss="103.96" rerouteNo="0" devices="tripinfo_10" vType="DEFAULT_VEHTYPE" speedFactor="1.09" vaporized=""/>
    <tripinfo id="74" depart="97.00" departLane="101898714#1_0" departPos="5.10" departSpeed="0.00" departDelay="0.49" arrival="264.00" arrivalLane="188725039#1_0" arrivalPos="60.73" arrivalSpeed="12.87" duration="167.00" routeLength="1841.68" waitingTime="0.00" waitingCount="0" stopTime="0.00" timeLoss="25.17" rerouteNo="0" devices="tripinfo_74" vType="DEFAULT_VEHTYPE" speedFactor="0.96" vaporized=""/>
    <tripinfo id="12" depart="13.00" departLane="252494919#1_0" departPos="5.10" departSpeed="0.00" departDelay="0.58" arrival="281.00" arrivalLane="-173001718#3_0" arrivalPos="41.72" arrivalSpeed="13.32" duration="268.00" routeLength="3821.04" waitingTime="67.00" waitingCount="4" stopTime="0.00" timeLoss="124.07" rerouteNo="0" devices="tripinfo_12" vType="DEFAULT_VEHTYPE" speedFactor="1.05" vaporized=""/>
    <tripinfo id="56" depart="69.00" departLane="771577723#0_0" departPos="0.86" departSpeed="0.00" departDelay="0.18" arrival="282.00" arrivalLane="288354567#6_2" arrivalPos="36.09" arrivalSpeed="11.71" duration="213.00" routeLength="1855.12" waitingTime="21.00" waitingCount="4" stopTime="0.00" timeLoss="68.20" rerouteNo="0" devices="tripinfo_56" vType="DEFAULT_VEHTYPE" speedFactor="0.90" vaporized=""/>
    <tripinfo id="63" depart="82.00" departLane="78380844#1_0" departPos="5.10" departSpeed="0.00" departDelay="3.05" arrival="284.00" arrivalLane="-75844318#7_0" arrivalPos="78.12" arrivalSpeed="13.25" duration="202.00" routeLength="1664.74" waitingTime="43.00" waitingCount="5" stopTime="0.00" timeLoss="82.65" rerouteNo="0" devices="tripinfo_63" vType="DEFAULT_VEHTYPE" speedFactor="0.99" vaporized=""/>
    <tripinfo id="13" depart="14.00" departLane="183397040#0_0" departPos="5.10" departSpeed="0.00" departDelay="0.52" arrival="285.00" arrivalLane="33072357#1_0" arrivalPos="870.64" arrivalSpeed="29.97" duration="271.00" routeLength="2820.62" waitingTime="69.00" waitingCount="6" stopTime="0.00" timeLoss="127.22" rerouteNo="0" devices="tripinfo_13" vType="DEFAULT_VEHTYPE" speedFactor="1.12" vaporized=""/>
    <tripinfo id="23" depart="30.00" departLane="183397040#0_0" departPos="5.10" departSpeed="0.00" departDelay="0.47" arrival="293.00" arrivalLane="33072357#1_0" arrivalPos="870.64" arrivalSpeed="24.49" duration="263.00" routeLength="2736.46" waitingTime="32.00" waitingCount="6" stopTime="0.00" timeLoss="88.45" rerouteNo="0" devices="tripinfo_23" vType="DEFAULT_VEHTYPE" speedFactor="0.89" vaporized=""/>
    <tripinfo id="18" depart="26.00" departLane="1076843336_0" departPos="5.10" departSpeed="0.00" departDelay="0.45" arrival="301.00" arrivalLane="330746961#0_0" arrivalPos="90.81" arrivalSpeed="22.85" duration="275.00" routeLength="3855.81" waitingTime="31.00" waitingCount="2" stopTime="0.00" timeLoss="78.08" rerouteNo="0" devices="tripinfo_18" vType="DEFAULT_VEHTYPE" speedFactor="0.94" vaporized=""/>
    <tripinfo id="34" depart="44.00" departLane="-340667919#1_0" departPos="5.10" departSpeed="0.00" departDelay="0.17" arrival="310.00" arrivalLane="326352586#10_0" arrivalPos="98.88" arrivalSpeed="20.98" duration="266.00" routeLength="2752.41" waitingTime="41.00" waitingCount="6" stopTime="0.00" timeLoss="108.90" rerouteNo="0" devices="tripinfo_34" vType="DEFAULT_VEHTYPE" speedFactor="0.99" vaporized=""/>
    <tripinfo id="2" depart="3.00" departLane="449379871_0" departPos="0.20" departSpeed="0.00" departDelay="0.77" arrival="315.00" arrivalLane="506599431#0_2" arrivalPos="102.16" arrivalSpeed="21.60" duration="312.00" routeLength="2407.91" waitingTime="136.00" waitingCount="4" stopTime="0.00" timeLoss="173.08" rerouteNo="0" devices="tripinfo_2" vType="DEFAULT_VEHTYPE" speedFactor="1.01" vaporized=""/>
    <tripinfo id="62" depart="77.00" departLane="696614541#2-AddedOnRampEdge_0" departPos="5.10" departSpeed="0.00" departDelay="0.63" arrival="321.00" arrivalLane="75258707#5_0" arrivalPos="114.50" arrivalSpeed="13.76" duration="244.00" routeLength="2371.21" waitingTime="77.00" waitingCount="4" stopTime="0.00" timeLoss="125.55" rerouteNo="0" devices="tripinfo_62" vType="DEFAULT_VEHTYPE" speedFactor="1.02" vaporized=""/>
    <tripinfo id="61" depart="77.00" departLane="183397040#0_0" departPos="5.10" departSpeed="0.00" departDelay="0.92" arrival="323.00" arrivalLane="33072357#1_0" arrivalPos="870.64" arrivalSpeed="30.97" duration="246.00" routeLength="2747.55" waitingTime="39.00" waitingCount="7" stopTime="0.00" timeLoss="111.84" rerouteNo="0" devices="tripinfo_61" vType="DEFAULT_VEHTYPE" speedFactor="1.12" vaporized=""/>
    <tripinfo id="82" depart="107.00" departLane="183397040#0_0" departPos="5.10" departSpeed="0.00" departDelay="0.22" arrival="327.00" arrivalLane="33072357#1_0" arrivalPos="870.64" arrivalSpeed="27.40" duration="220.00" routeLength="2736.46" waitingTime="23.00" waitingCount="3" stopTime="0.00" timeLoss="67.16" rerouteNo="0" devices="tripinfo_82" vType="DEFAULT_VEHTYPE" speedFactor="1.02" vaporized=""/>
    <tripinfo id="130" depart="161.00" departLane="183865668#1_0" departPos="5.10" departSpeed="0.00" departDelay="0.12" arrival="329.00" arrivalLane="33072357#1_0" arrivalPos="870.64" arrivalSpeed="28.25" duration="168.00" routeLength="2288.93" waitingTime="17.00" waitingCount="2" stopTime="0.00" timeLoss="64.48" rerouteNo="0" devices="tripinfo_130" vType="DEFAULT_VEHTYPE" speedFactor="1.03" vaporized=""/>
    <tripinfo id="8" depart="10.00" departLane="-75829509#3_0" departPos="5.10" departSpeed="0.00" departDelay="0.50" arrival="330.00" arrivalLane="506599431#3_0" arrivalPos="365.90" arrivalSpeed="25.62" duration="320.00" routeLength="3668.03" waitingTime="62.00" waitingCount="4" stopTime="0.00" timeLoss="113.82" rerouteNo="0" devices="tripinfo_8" vType="DEFAULT_VEHTYPE" speedFactor="0.94" vaporized=""/>
    <tripinfo id="97" depart="124.00" departLane="159118950#3_0" departPos="5.10" departSpeed="0.00" departDelay="0.35" arrival="337.00" arrivalLane="311359936#5_0" arrivalPos="0.20" arrivalSpeed="19.61" duration="213.00" routeLength="3347.01" waitingTime="33.00" waitingCount="1" stopTime="0.00" timeLoss="68.06" rerouteNo="0" devices="tripinfo_97" vType="DEFAULT_VEHTYPE" speedFactor="0.91" vaporized=""/>
    <tripinfo id="98" depart="125.00" departLane="183397040#0_0" departPos="5.10" departSpeed="0.00" departDelay="0.48" arrival="361.00" arrivalLane="33072357#1_0" arrivalPos="870.64" arrivalSpeed="30.75" duration="236.00" routeLength="2749.41" waitingTime="48.00" waitingCount="3" stopTime="0.00" timeLoss="94.72" rerouteNo="0" devices="tripinfo_98" vType="DEFAULT_VEHTYPE" speedFactor="1.12" vaporized=""/>
    <tripinfo id="137" depart="172.00" departLane="101898714#1_0" departPos="5.10" departSpeed="0.00" departDelay="0.60" arrival="362.00" arrivalLane="188725039#1_0" arrivalPos="60.73" arrivalSpeed="12.92" duration="190.00" routeLength="1841.68" waitingTime="27.00" waitingCount="2" stopTime="0.00" timeLoss="56.61" rerouteNo="0" devices="tripinfo_137" vType="DEFAULT_VEHTYPE" speedFactor="1.02" vaporized=""/>
    <tripinfo id="117" depart="150.00" departLane="118880648#0_0" departPos="5.10" departSpeed="0.00" departDelay="0.47" arrival="371.00" arrivalLane="101894851#11_0" arrivalPos="85.18" arrivalSpeed="13.02" duration="221.00" routeLength="1885.14" waitingTime="63.00" waitingCount="3" stopTime="0.00" timeLoss="107.72" rerouteNo="0" devices="tripinfo_117" vType="DEFAULT_VEHTYPE" speedFactor="1.00" vaporized=""/>
    <tripinfo id="146" depart="187.00" departLane="242316143_0" departPos="5.10" departSpeed="0.00" departDelay="0.08" arrival="382.00" arrivalLane="449379853#1_0" arrivalPos="7.70" arrivalSpeed="11.37" duration="195.00" routeLength="1205.39" waitingTime="69.00" waitingCount="3" stopTime="0.00" timeLoss="99.16" rerouteNo="0" devices="tripinfo_146" vType="DEFAULT_VEHTYPE" speedFactor="0.89" vaporized=""/>
    <tripinfo id="170" depart="215.00" departLane="242316143_0" departPos="5.10" departSpeed="0.00" departDelay="0.64" arrival="384.00" arrivalLane="449379853#1_0" arrivalPos="7.70" arrivalSpeed="13.75" duration="169.00" routeLength="1192.07" waitingTime="67.00" waitingCount="3" stopTime="0.00" timeLoss="95.88" rerouteNo="0" devices="tripinfo_170" vType="DEFAULT_VEHTYPE" speedFactor="1.09" vaporized=""/>
    <tripinfo id="37" depart="47.00" departLane="90590336#3_0" departPos="2.28" departSpeed="0.00" departDelay="0.28" arrival="387.00" arrivalLane="-158758833#1_0" arrivalPos="47.55" arrivalSpeed="15.04" duration="340.00" routeLength="2820.67" waitingTime="89.00" waitingCount="7" stopTime="0.00" timeLoss="166.97" rerouteNo="0" devices="tripinfo_37" vType="DEFAULT_VEHTYPE" speedFactor="1.18" vaporized=""/>
    <tripinfo id="211" depart="258.00" departLane="242316143_0" departPos="5.10" departSpeed="0.00" departDelay="0.42" arrival="387.00" arrivalLane="449379853#1_0" arrivalPos="7.70" arrivalSpeed="13.12" duration="129.00" routeLength="1205.39" waitingTime="20.00" waitingCount="2" stopTime="0.00" timeLoss="46.66" rerouteNo="0" devices="tripinfo_211" vType="DEFAULT_VEHTYPE" speedFactor="1.04" vaporized=""/>
    <tripinfo id="32" depart="43.00" departLane="-311860248#0_0" departPos="5.10" departSpeed="0.00" departDelay="0.28" arrival="388.00" arrivalLane="51813029#13_0" arrivalPos="144.73" arrivalSpeed="12.73" duration="345.00" routeLength="3480.20" waitingTime="98.00" waitingCount="5" stopTime="0.00" timeLoss="157.43" rerouteNo="0" devices="tripinfo_32" vType="DEFAULT_VEHTYPE" speedFactor="1.01" vaporized=""/>
    <tripinfo id="112" depart="142.00" departLane="506599431#2_0" departPos="5.10" departSpeed="0.00" departDelay="0.02" arrival="390.00" arrivalLane="98724201#6_0" arrivalPos="96.30" arrivalSpeed="14.59" duration="248.00" routeLength="3959.15" waitingTime="9.00" waitingCount="2" stopTime="0.00" timeLoss="59.81" rerouteNo="0" devices="tripinfo_112" vType="DEFAULT_VEHTYPE" speedFactor="1.10" vaporized=""/>
    <tripinfo id="132" depart="163.00" departLane="-101895798#1_0" departPos="5.10" departSpeed="0.00" departDelay="0.56" arrival="390.00" arrivalLane="188725039#0_0" arrivalPos="30.51" arrivalSpeed="13.00" duration="227.00" routeLength="1642.62" waitingTime="68.00" waitingCount="4" stopTime="0.00" timeLoss="106.37" rerouteNo="0" devices="tripinfo_132" vType="DEFAULT_VEHTYPE" speedFactor="0.96" vaporized=""/>
    <tripinfo id="81" depart="106.00" departLane="696614541#2-AddedOnRampEdge_0" departPos="5.10" departSpeed="0.00" departDelay="0.67" arrival="402.00" arrivalLane="-23766844#4_0" arrivalPos="129.46" arrivalSpeed="21.74" duration="296.00" routeLength="3833.39" waitingTime="56.00" waitingCount="6" stopTime="0.00" timeLoss="135.40" rerouteNo="0" devices="tripinfo_81" vType="DEFAULT_VEHTYPE" speedFactor="1.00" vaporized=""/>
    <tripinfo id="228" depart="281.00" departLane="-188725041#0_0" departPos="0.20" departSpeed="0.00" departDelay="0.68" arrival="404.00" arrivalLane="75258655#3_2" arrivalPos="75.33" arrivalSpeed="5.94" duration="123.00" routeLength="863.97" waitingTime="43.00" waitingCount="2" stopTime="0.00" timeLoss="66.52" rerouteNo="0" devices="tripinfo_228" vType="DEFAULT_VEHTYPE" speedFactor="1.09" vaporized=""/>
    <tripinfo id="127" depart="158.00" departLane="183397040#0_0" departPos="5.10" departSpeed="0.00" departDelay="0.67" arrival="407.00" arrivalLane="33072357#1_0" arrivalPos="870.64" arrivalSpeed="21.67" duration="249.00" routeLength="2820.62" waitingTime="14.00" waitingCount="2" stopTime="0.00" timeLoss="52.47" rerouteNo="0" devices="tripinfo_127" vType="DEFAULT_VEHTYPE" speedFactor="0.82" vaporized=""/>
    <tripinfo id="156" depart="199.00" departLane="158978976#18_0" departPos="0.20" departSpeed="0.00" departDelay="0.07" arrival="407.00" arrivalLane="75844260#2_0" arrivalPos="152.69" arrivalSpeed="15.81" duration="208.00" routeLength="2007.15" waitingTime="49.00" waitingCount="4" stopTime="0.00" timeLoss="99.86" rerouteNo="0" devices="tripinfo_156" vType="DEFAULT_VEHTYPE" speedFactor="1.18" vaporized=""/>
    <tripinfo id="128" depart="163.00" departLane="1076843336_0" departPos="5.10" departSpeed="0.00" departDelay="3.64" arrival="408.00" arrivalLane="330746961#0_0" arrivalPos="90.81" arrivalSpeed="24.64" duration="245.00" routeLength="3855.81" waitingTime="20.00" waitingCount="3" stopTime="0.00" timeLoss="80.26" rerouteNo="0" devices="tripinfo_128" vType="DEFAULT_VEHTYPE" speedFactor="1.12" vaporized=""/>
    <tripinfo id="43" depart="56.00" departLane="-492566966_0" departPos="5.10" departSpeed="0.00" departDelay="0.58" arrival="409.00" arrivalLane="-75829484#7_0" arrivalPos="105.22" arrivalSpeed="13.25" duration="353.00" routeLength="4273.87" waitingTime="58.00" waitingCount="6" stopTime="0.00" timeLoss="135.12" rerouteNo="0" devices="tripinfo_43" vType="DEFAULT_VEHTYPE" speedFactor="1.04" vaporized=""/>
    <tripinfo id="131" depart="161.00" departLane="159118950#2_0" departPos="0.20" departSpeed="0.00" departDelay="0.10" arrival="409.00" arrivalLane="266064126#0_0" arrivalPos="48.68" arrivalSpeed="22.86" duration="248.00" routeLength="4597.96" waitingTime="14.00" waitingCount="2" stopTime="0.00" timeLoss="71.01" rerouteNo="0" devices="tripinfo_131" vType="DEFAULT_VEHTYPE" speedFactor="1.07" vaporized=""/>
    <tripinfo id="138" depart="173.00" departLane="183397040#0_0" departPos="5.10" departSpeed="0.00" departDelay="0.48" arrival="409.00" arrivalLane="33072357#1_0" arrivalPos="870.64" arrivalSpeed="24.04" duration="236.00" routeLength="2820.62" waitingTime="13.00" waitingCount="2" stopTime="0.00" timeLoss="75.04" rerouteNo="0" devices="tripinfo_138" vType="DEFAULT_VEHTYPE" speedFactor="1.00" vaporized=""/>
    <tripinfo id="58" depart="70.00" departLane="243905113#1_0" departPos="5.10" departSpeed="0.00" departDelay="0.40" arrival="418.00" arrivalLane="-72452071#4_0" arrivalPos="4.23" arrivalSpeed="13.31" duration="348.00" routeLength="2594.53" waitingTime="110.00" waitingCount="10" stopTime="0.00" timeLoss="207.31" rerouteNo="0" devices="tripinfo_58" vType="DEFAULT_VEHTYPE" speedFactor="1.02" vaporized=""/>
    <tripinfo id="11" depart="11.00" departLane="-492566966_0" departPos="5.10" departSpeed="0.00" departDelay="0.73" arrival="419.00" arrivalLane="79211500#1_0" arrivalPos="47.23" arrivalSpeed="13.67" duration="408.00" routeLength="3853.28" waitingTime="178.00" waitingCount="4" stopTime="0.00" timeLoss="234.28" rerouteNo="0" devices="tripinfo_11" vType="DEFAULT_VEHTYPE" speedFactor="1.03" vaporized=""/>
    <tripinfo id="39" depart="53.00" departLane="-492566966_0" departPos="5.10" departSpeed="0.00" departDelay="0.78" arrival="419.00" arrivalLane="-75829484#7_0" arrivalPos="105.22" arrivalSpeed="12.17" duration="366.00" routeLength="4054.93" waitingTime="61.00" waitingCount="3" stopTime="0.00" timeLoss="120.54" rerouteNo="0" devices="tripinfo_39" vType="DEFAULT_VEHTYPE" speedFactor="0.90" vaporized=""/>
    <tripinfo id="41" depart="55.00" departLane="158805066#0_0" departPos="5.10" departSpeed="0.00" departDelay="0.70" arrival="428.00" arrivalLane="506599431#3_2" arrivalPos="365.90" arrivalSpeed="25.65" duration="373.00" routeLength="3266.23" waitingTime="123.00" waitingCount="5" stopTime="0.00" timeLoss="178.10" rerouteNo="0" devices="tripinfo_41" vType="DEFAULT_VEHTYPE" speedFactor="0.96" vaporized=""/>
    <tripinfo id="6" depart="9.00" departLane="319203388#11_0" departPos="5.10" departSpeed="0.00" departDelay="0.75" arrival="430.00" arrivalLane="252494919#1_1" arrivalPos="62.89" arrivalSpeed="17.47" duration="421.00" routeLength="3158.56" waitingTime="223.00" waitingCount="6" stopTime="0.00" timeLoss="293.29" rerouteNo="0" devices="tripinfo_6" vType="DEFAULT_VEHTYPE" speedFactor="1.05" vaporized=""/>
    <tripinfo id="60" depart="73.00" departLane="78380844#0_0" departPos="0.20" departSpeed="0.00" departDelay="0.35" arrival="439.00" arrivalLane="72581708#7_0" arrivalPos="50.55" arrivalSpeed="14.81" duration="366.00" routeLength="4038.87" waitingTime="96.00" waitingCount="6" stopTime="0.00" timeLoss="162.53" rerouteNo="0" devices="tripinfo_60" vType="DEFAULT_VEHTYPE" speedFactor="1.08" vaporized=""/>
    <tripinfo id="22" depart="30.00" departLane="78380834_0" departPos="5.10" departSpeed="0.00" departDelay="0.76" arrival="440.00" arrivalLane="-316842893#11_0" arrivalPos="133.01" arrivalSpeed="20.84" duration="410.00" routeLength="5403.08" waitingTime="76.00" waitingCount="8" stopTime="0.00" timeLoss="163.43" rerouteNo="0" devices="tripinfo_22" vType="DEFAULT_VEHTYPE" speedFactor="0.97" vaporized=""/>
    <tripinfo id="201" depart="252.00" departLane="183865668#1_0" departPos="5.10" departSpeed="0.00" departDelay="0.13" arrival="443.00" arrivalLane="33072357#1_0" arrivalPos="870.64" arrivalSpeed="23.35" duration="191.00" routeLength="2288.93" waitingTime="37.00" waitingCount="3" stopTime="0.00" timeLoss="68.68" rerouteNo="0" devices="tripinfo_201" vType="DEFAULT_VEHTYPE" speedFactor="0.87" vaporized=""/>
    <tripinfo id="157" depart="200.00" departLane="183397040#0_0" departPos="5.10" departSpeed="0.00" departDelay="0.38" arrival="444.00" arrivalLane="33072357#1_0" arrivalPos="870.64" arrivalSpeed="26.01" duration="244.00" routeLength="2749.41" waitingTime="33.00" waitingCount="5" stopTime="0.00" timeLoss="97.62" rerouteNo="0" devices="tripinfo_157" vType="DEFAULT_VEHTYPE" speedFactor="1.08" vaporized=""/>
    <tripinfo id="166" depart="209.00" departLane="198352411#1_0" departPos="5.10" departSpeed="0.00" departDelay="0.25" arrival="448.00" arrivalLane="-455440689#1_0" arrivalPos="469.04" arrivalSpeed="12.94" duration="239.00" routeLength="2408.54" waitingTime="37.00" waitingCount="5" stopTime="0.00" timeLoss="114.23" rerouteNo="0" devices="tripinfo_166" vType="DEFAULT_VEHTYPE" speedFactor="1.00" vaporized=""/>
    <tripinfo id="197" depart="247.00" departLane="101898714#1_0" departPos="5.10" departSpeed="0.00" departDelay="0.79" arrival="450.00" arrivalLane="188725039#1_0" arrivalPos="60.73" arrivalSpeed="11.68" duration="203.00" routeLength="1814.32" waitingTime="21.00" waitingCount="1" stopTime="0.00" timeLoss="50.43" rerouteNo="0" devices="tripinfo_197" vType="DEFAULT_VEHTYPE" speedFactor="0.87" vaporized=""/>
    <tripinfo id="221" depart="269.00" departLane="242316143_0" departPos="5.10" departSpeed="0.00" departDelay="0.07" arrival="452.00" arrivalLane="449379853#1_0" arrivalPos="7.70" arrivalSpeed="13.78" duration="183.00" routeLength="1192.07" waitingTime="79.00" waitingCount="2" stopTime="0.00" timeLoss="113.97" rerouteNo="0" devices="tripinfo_221" vType="DEFAULT_VEHTYPE" speedFactor="1.15" vaporized=""/>
    <tripinfo id="218" depart="265.00" departLane="183865668#1_0" departPos="5.10" departSpeed="0.00" departDelay="0.70" arrival="454.00" arrivalLane="33072357#1_0" arrivalPos="870.64" arrivalSpeed="29.41" duration="189.00" routeLength="2344.10" waitingTime="30.00" waitingCount="3" stopTime="0.00" timeLoss="96.66" rerouteNo="0" devices="tripinfo_218" vType="DEFAULT_VEHTYPE" speedFactor="1.07" vaporized=""/>
    <tripinfo id="52" depart="67.00" departLane="911605212#3_0" departPos="0.20" departSpeed="0.00" departDelay="0.72" arrival="455.00" arrivalLane="413955653#11_0" arrivalPos="26.12" arrivalSpeed="23.28" duration="388.00" routeLength="1836.35" waitingTime="223.00" waitingCount="7" stopTime="0.00" timeLoss="275.07" rerouteNo="0" devices="tripinfo_52" vType="DEFAULT_VEHTYPE" speedFactor="1.02" vaporized=""/>
    <tripinfo id="54" depart="69.00" departLane="26793529#2_0" departPos="5.10" departSpeed="0.00" departDelay="0.78" arrival="457.00" arrivalLane="33072357#1_0" arrivalPos="870.64" arrivalSpeed="26.57" duration="388.00" routeLength="4706.88" waitingTime="88.00" waitingCount="9" stopTime="0.00" timeLoss="212.79" rerouteNo="0" devices="tripinfo_54" vType="DEFAULT_VEHTYPE" speedFactor="1.00" vaporized=""/>
    <tripinfo id="83" depart="108.00" departLane="78380834_0" departPos="5.10" departSpeed="0.00" departDelay="0.65" arrival="457.00" arrivalLane="-244450531#2_0" arrivalPos="22.85" arrivalSpeed="13.01" duration="349.00" routeLength="4433.18" waitingTime="62.00" waitingCount="7" stopTime="0.00" timeLoss="138.21" rerouteNo="0" devices="tripinfo_83" vType="DEFAULT_VEHTYPE" speedFactor="0.97" vaporized=""/>
    <tripinfo id="244" depart="294.00" departLane="242316143_0" departPos="5.10" departSpeed="0.00" departDelay="0.96" arrival="457.00" arrivalLane="449379853#1_0" arrivalPos="7.70" arrivalSpeed="13.20" duration="163.00" routeLength="1192.07" waitingTime="46.00" waitingCount="3" stopTime="0.00" timeLoss="85.96" rerouteNo="0" devices="tripinfo_244" vType="DEFAULT_VEHTYPE" speedFactor="1.02" vaporized=""/>
    <tripinfo id="113" depart="144.00" departLane="-255891223_0" departPos="5.10" departSpeed="0.00" departDelay="0.86" arrival="459.00" arrivalLane="48769273#1_0" arrivalPos="42.80" arrivalSpeed="12.80" duration="315.00" routeLength="3659.09" waitingTime="35.00" waitingCount="6" stopTime="0.00" timeLoss="124.11" rerouteNo="0" devices="tripinfo_113" vType="DEFAULT_VEHTYPE" speedFactor="1.01" vaporized=""/>
    <tripinfo id="225" depart="274.00" departLane="242316143_0" departPos="5.10" departSpeed="0.00" departDelay="0.42" arrival="459.00" arrivalLane="449379853#1_0" arrivalPos="7.70" arrivalSpeed="13.36" duration="185.00" routeLength="1205.39" waitingTime="59.00" waitingCount="4" stopTime="0.00" timeLoss="97.11" rerouteNo="0" devices="tripinfo_225" vType="DEFAULT_VEHTYPE" speedFactor="0.97" vaporized=""/>
    <tripinfo id="47" depart="59.00" departLane="-832873499_0" departPos="5.10" departSpeed="0.00" departDelay="0.67" arrival="461.00" arrivalLane="75844260#1_0" arrivalPos="154.14" arrivalSpeed="12.34" duration="402.00" routeLength="4109.15" waitingTime="71.00" waitingCount="8" stopTime="0.00" timeLoss="164.25" rerouteNo="0" devices="tripinfo_47" vType="DEFAULT_VEHTYPE" speedFactor="0.90" vaporized=""/>
    <tripinfo id="193" depart="240.00" departLane="340670792#1_0" departPos="5.10" departSpeed="0.00" departDelay="0.99" arrival="461.00" arrivalLane="48769273#2_0" arrivalPos="75.40" arrivalSpeed="14.70" duration="221.00" routeLength="2326.42" waitingTime="28.00" waitingCount="4" stopTime="0.00" timeLoss="91.85" rerouteNo="0" devices="tripinfo_193" vType="DEFAULT_VEHTYPE" speedFactor="1.07" vaporized=""/>
    <tripinfo id="257" depart="315.00" departLane="242316143_0" departPos="5.10" departSpeed="0.00" departDelay="3.79" arrival="461.00" arrivalLane="449379853#1_0" arrivalPos="7.70" arrivalSpeed="17.17" duration="146.00" routeLength="1192.07" waitingTime="27.00" waitingCount="2" stopTime="0.00" timeLoss="84.52" rerouteNo="0" devices="tripinfo_257" vType="DEFAULT_VEHTYPE" speedFactor="1.30" vaporized=""/>