<?xml version="1.0" encoding="UTF-8"?>

<!-- generated on 2024-04-17 00:08:57 by Eclipse SUMO GUI Version 1.19.0
<configuration xmlns:xsi="http://www.w3.org/2001/XMLSchema-instance" xsi:noNamespaceSchemaLocation="http://sumo.dlr.de/xsd/sumoConfiguration.xsd">

    <input>
        <net-file value=".\new_osm.net.xml"/>
        <route-files value=".\passenger.sampled.rou.xml"/>
        <additional-files value=".\osm.poly.xml.gz"/>
    </input>

    <output>
        <tripinfo-output value=".\tripinfo.xml"/>
        <statistic-output value=".\stats.xml"/>
    </output>

    <processing>
        <ignore-route-errors value="true"/>
    </processing>

    <routing>
        <routing-algorithm value="astar"/>
        <device.rerouting.probability value="1"/>
        <device.rerouting.adaptation-steps value="18"/>
        <device.rerouting.adaptation-interval value="10"/>
    </routing>

    <report>
        <verbose value="true"/>
        <duration-log.statistics value="true"/>
        <no-step-log value="true"/>
    </report>

    <gui_only>
        <gui-settings-file value=".\osm.view.xml"/>
    </gui_only>

</configuration>
-->

<tripinfos xmlns:xsi="http://www.w3.org/2001/XMLSchema-instance" xsi:noNamespaceSchemaLocation="http://sumo.dlr.de/xsd/tripinfo_file.xsd">
    <tripinfo id="3" depart="3.00" departLane="449379869#5_0" departPos="5.10" departSpeed="0.00" departDelay="0.62" arrival="171.00" arrivalLane="-1238557272#1_0" arrivalPos="32.20" arrivalSpeed="12.95" duration="168.00" routeLength="1892.81" waitingTime="18.00" waitingCount="3" stopTime="0.00" timeLoss="68.90" rerouteNo="1" devices="tripinfo_3 routing_3" vType="DEFAULT_VEHTYPE" speedFactor="1.08" vaporized=""/>
    <tripinfo id="10" depart="11.00" departLane="183397040#0_0" departPos="5.10" departSpeed="0.00" departDelay="0.79" arrival="204.00" arrivalLane="33072357#1_0" arrivalPos="870.64" arrivalSpeed="29.59" duration="193.00" routeLength="2747.55" waitingTime="16.00" waitingCount="3" stopTime="0.00" timeLoss="55.49" rerouteNo="1" devices="tripinfo_10 routing_10" vType="DEFAULT_VEHTYPE" speedFactor="1.09" vaporized=""/>
    <tripinfo id="33" depart="43.00" departLane="449379869#5_0" departPos="5.10" departSpeed="0.00" departDelay="0.22" arrival="219.00" arrivalLane="-1238557272#1_0" arrivalPos="32.20" arrivalSpeed="13.50" duration="176.00" routeLength="1892.81" waitingTime="46.00" waitingCount="2" stopTime="0.00" timeLoss="84.69" rerouteNo="1" devices="tripinfo_33 routing_33" vType="DEFAULT_VEHTYPE" speedFactor="1.17" vaporized=""/>
    <tripinfo id="78" depart="99.00" departLane="242316143_0" departPos="5.10" departSpeed="0.00" departDelay="0.65" arrival="226.00" arrivalLane="449379853#1_0" arrivalPos="7.70" arrivalSpeed="13.13" duration="127.00" routeLength="1143.22" waitingTime="21.00" waitingCount="2" stopTime="0.00" timeLoss="59.31" rerouteNo="1" devices="tripinfo_78 routing_78" vType="DEFAULT_VEHTYPE" speedFactor="1.01" vaporized=""/>
    <tripinfo id="63" depart="83.00" departLane="78380844#1_0" departPos="5.10" departSpeed="0.00" departDelay="4.05" arrival="237.00" arrivalLane="-75844318#7_0" arrivalPos="78.12" arrivalSpeed="12.83" duration="154.00" routeLength="1664.74" waitingTime="8.00" waitingCount="1" stopTime="0.00" timeLoss="34.63" rerouteNo="0" devices="tripinfo_63 routing_63" vType="DEFAULT_VEHTYPE" speedFactor="0.99" vaporized=""/>
    <tripinfo id="71" depart="91.00" departLane="158978976#9_0" departPos="5.10" departSpeed="0.00" departDelay="0.33" arrival="243.00" arrivalLane="78380752_0" arrivalPos="501.16" arrivalSpeed="26.84" duration="152.00" routeLength="1455.74" waitingTime="50.00" waitingCount="4" stopTime="0.00" timeLoss="97.83" rerouteNo="0" devices="tripinfo_71 routing_71" vType="DEFAULT_VEHTYPE" speedFactor="0.97" vaporized=""/>
    <tripinfo id="73" depart="94.00" departLane="158978976#9_0" departPos="5.10" departSpeed="0.00" departDelay="2.86" arrival="245.00" arrivalLane="78380752_0" arrivalPos="501.16" arrivalSpeed="28.32" duration="151.00" routeLength="1455.74" waitingTime="41.00" waitingCount="4" stopTime="0.00" timeLoss="100.51" rerouteNo="0" devices="tripinfo_73 routing_73" vType="DEFAULT_VEHTYPE" speedFactor="1.06" vaporized=""/>
    <tripinfo id="0" depart="2.00" departLane="183397040#0_0" departPos="5.10" departSpeed="0.00" departDelay="0.86" arrival="246.00" arrivalLane="33072357#1_0" arrivalPos="870.64" arrivalSpeed="28.91" duration="244.00" routeLength="2747.55" waitingTime="51.00" waitingCount="3" stopTime="0.00" timeLoss="102.52" rerouteNo="1" devices="tripinfo_0 routing_0" vType="DEFAULT_VEHTYPE" speedFactor="1.06" vaporized=""/>
    <tripinfo id="13" depart="14.00" departLane="183397040#0_0" departPos="5.10" departSpeed="0.00" departDelay="0.52" arrival="247.00" arrivalLane="33072357#1_0" arrivalPos="870.64" arrivalSpeed="30.00" duration="233.00" routeLength="2747.55" waitingTime="43.00" waitingCount="5" stopTime="0.00" timeLoss="99.67" rerouteNo="1" devices="tripinfo_13 routing_13" vType="DEFAULT_VEHTYPE" speedFactor="1.12" vaporized=""/>
    <tripinfo id="16" depart="26.00" departLane="195673600#9_0" departPos="5.10" departSpeed="0.00" departDelay="0.77" arrival="250.00" arrivalLane="444625978_0" arrivalPos="44.58" arrivalSpeed="12.06" duration="224.00" routeLength="2341.94" waitingTime="58.00" waitingCount="4" stopTime="0.00" timeLoss="109.52" rerouteNo="0" devices="tripinfo_16 routing_16" vType="DEFAULT_VEHTYPE" speedFactor="0.88" vaporized=""/>
    <tripinfo id="49" depart="62.00" departLane="183865668#1_0" departPos="5.10" departSpeed="0.00" departDelay="0.90" arrival="274.00" arrivalLane="33072357#1_0" arrivalPos="870.64" arrivalSpeed="22.72" duration="212.00" routeLength="2340.50" waitingTime="54.00" waitingCount="3" stopTime="0.00" timeLoss="95.18" rerouteNo="1" devices="tripinfo_49 routing_49" vType="DEFAULT_VEHTYPE" speedFactor="0.85" vaporized=""/>
    <tripinfo id="70" depart="90.00" departLane="183865668#1_0" departPos="5.10" departSpeed="0.00" departDelay="0.60" arrival="275.00" arrivalLane="33072357#1_0" arrivalPos="870.64" arrivalSpeed="25.09" duration="185.00" routeLength="2340.50" waitingTime="40.00" waitingCount="2" stopTime="0.00" timeLoss="88.57" rerouteNo="1" devices="tripinfo_70 routing_70" vType="DEFAULT_VEHTYPE" speedFactor="1.02" vaporized=""/>
    <tripinfo id="56" depart="69.00" departLane="771577723#0_0" departPos="0.86" departSpeed="0.00" departDelay="0.18" arrival="280.00" arrivalLane="288354567#6_2" arrivalPos="36.09" arrivalSpeed="11.68" duration="211.00" routeLength="1855.12" waitingTime="21.00" waitingCount="3" stopTime="0.00" timeLoss="65.71" rerouteNo="0" devices="tripinfo_56 routing_56" vType="DEFAULT_VEHTYPE" speedFactor="0.90" vaporized=""/>
    <tripinfo id="109" depart="139.00" departLane="242316143_0" departPos="5.10" departSpeed="0.00" departDelay="0.53" arrival="295.00" arrivalLane="449379853#1_0" arrivalPos="7.70" arrivalSpeed="12.82" duration="156.00" routeLength="1143.22" waitingTime="50.00" waitingCount="3" stopTime="0.00" timeLoss="85.34" rerouteNo="1" devices="tripinfo_109 routing_109" vType="DEFAULT_VEHTYPE" speedFactor="0.96" vaporized=""/>
    <tripinfo id="110" depart="142.00" departLane="242316143_0" departPos="5.10" departSpeed="0.00" departDelay="3.05" arrival="297.00" arrivalLane="449379853#1_0" arrivalPos="7.70" arrivalSpeed="12.22" duration="155.00" routeLength="1143.22" waitingTime="55.00" waitingCount="2" stopTime="0.00" timeLoss="81.89" rerouteNo="1" devices="tripinfo_110 routing_110" vType="DEFAULT_VEHTYPE" speedFactor="0.93" vaporized=""/>
    <tripinfo id="116" depart="147.00" departLane="242316143_0" departPos="5.10" departSpeed="0.00" departDelay="0.55" arrival="299.00" arrivalLane="449379853#1_0" arrivalPos="7.70" arrivalSpeed="11.70" duration="152.00" routeLength="1143.22" waitingTime="50.00" waitingCount="3" stopTime="0.00" timeLoss="94.57" rerouteNo="1" devices="tripinfo_116 routing_116" vType="DEFAULT_VEHTYPE" speedFactor="1.18" vaporized=""/>
    <tripinfo id="5" depart="7.00" departLane="340670792#1_0" departPos="5.10" departSpeed="0.00" departDelay="0.85" arrival="301.00" arrivalLane="48769273#2_0" arrivalPos="75.40" arrivalSpeed="10.34" duration="294.00" routeLength="2576.79" waitingTime="83.00" waitingCount="5" stopTime="0.00" timeLoss="139.99" rerouteNo="1" devices="tripinfo_5 routing_5" vType="DEFAULT_VEHTYPE" speedFactor="0.83" vaporized=""/>
    <tripinfo id="18" depart="26.00" departLane="1076843336_0" departPos="5.10" departSpeed="0.00" departDelay="0.45" arrival="306.00" arrivalLane="330746961#0_0" arrivalPos="90.81" arrivalSpeed="25.83" duration="280.00" routeLength="4023.17" waitingTime="42.00" waitingCount="4" stopTime="0.00" timeLoss="92.05" rerouteNo="1" devices="tripinfo_18 routing_18" vType="DEFAULT_VEHTYPE" speedFactor="0.94" vaporized=""/>
    <tripinfo id="117" depart="150.00" departLane="118880648#0_0" departPos="5.10" departSpeed="0.00" departDelay="0.47" arrival="310.00" arrivalLane="101894851#11_0" arrivalPos="85.18" arrivalSpeed="13.86" duration="160.00" routeLength="1700.64" waitingTime="18.00" waitingCount="2" stopTime="0.00" timeLoss="62.61" rerouteNo="1" devices="tripinfo_117 routing_117" vType="DEFAULT_VEHTYPE" speedFactor="1.00" vaporized=""/>
    <tripinfo id="69" depart="88.00" departLane="51813018#2_0" departPos="5.10" departSpeed="0.00" departDelay="0.25" arrival="318.00" arrivalLane="313584143#1_0" arrivalPos="214.31" arrivalSpeed="12.95" duration="230.00" routeLength="1408.13" waitingTime="124.00" waitingCount="3" stopTime="0.00" timeLoss="158.37" rerouteNo="1" devices="tripinfo_69 routing_69" vType="DEFAULT_VEHTYPE" speedFactor="1.02" vaporized=""/>
    <tripinfo id="62" depart="77.00" departLane="696614541#2-AddedOnRampEdge_0" departPos="5.10" departSpeed="0.00" departDelay="0.63" arrival="319.00" arrivalLane="75258707#5_0" arrivalPos="114.50" arrivalSpeed="14.10" duration="242.00" routeLength="2371.21" waitingTime="78.00" waitingCount="4" stopTime="0.00" timeLoss="124.06" rerouteNo="0" devices="tripinfo_62 routing_62" vType="DEFAULT_VEHTYPE" speedFactor="1.02" vaporized=""/>
    <tripinfo id="52" depart="67.00" departLane="911605212#3_0" departPos="0.20" departSpeed="0.00" departDelay="0.72" arrival="322.00" arrivalLane="413955653#11_0" arrivalPos="26.12" arrivalSpeed="22.66" duration="255.00" routeLength="1831.27" waitingTime="118.00" waitingCount="6" stopTime="0.00" timeLoss="161.79" rerouteNo="1" devices="tripinfo_52 routing_52" vType="DEFAULT_VEHTYPE" speedFactor="1.02" vaporized=""/>
    <tripinfo id="23" depart="30.00" departLane="183397040#0_0" departPos="5.10" departSpeed="0.00" departDelay="0.47" arrival="330.00" arrivalLane="33072357#1_0" arrivalPos="870.64" arrivalSpeed="24.30" duration="300.00" routeLength="2747.55" waitingTime="64.00" waitingCount="8" stopTime="0.00" timeLoss="131.37" rerouteNo="1" devices="tripinfo_23 routing_23" vType="DEFAULT_VEHTYPE" speedFactor="0.89" vaporized=""/>
    <tripinfo id="61" depart="77.00" departLane="183397040#0_0" departPos="5.10" departSpeed="0.00" departDelay="0.92" arrival="332.00" arrivalLane="33072357#1_0" arrivalPos="870.64" arrivalSpeed="27.93" duration="255.00" routeLength="2747.55" waitingTime="39.00" waitingCount="7" stopTime="0.00" timeLoss="120.30" rerouteNo="0" devices="tripinfo_61 routing_61" vType="DEFAULT_VEHTYPE" speedFactor="1.12" vaporized=""/>
    <tripinfo id="34" depart="44.00" departLane="-340667919#1_0" departPos="5.10" departSpeed="0.00" departDelay="0.17" arrival="335.00" arrivalLane="326352586#10_0" arrivalPos="98.88" arrivalSpeed="21.01" duration="291.00" routeLength="3021.13" waitingTime="70.00" waitingCount="6" stopTime="0.00" timeLoss="153.97" rerouteNo="1" devices="tripinfo_34 routing_34" vType="DEFAULT_VEHTYPE" speedFactor="0.99" vaporized=""/>
    <tripinfo id="12" depart="13.00" departLane="252494919#1_0" departPos="5.10" departSpeed="0.00" departDelay="0.58" arrival="337.00" arrivalLane="-173001718#3_0" arrivalPos="41.72" arrivalSpeed="13.88" duration="324.00" routeLength="3821.04" waitingTime="101.00" waitingCount="7" stopTime="0.00" timeLoss="179.71" rerouteNo="0" devices="tripinfo_12 routing_12" vType="DEFAULT_VEHTYPE" speedFactor="1.05" vaporized=""/>
    <tripinfo id="97" depart="124.00" departLane="159118950#3_0" departPos="5.10" departSpeed="0.00" departDelay="0.35" arrival="338.00" arrivalLane="311359936#5_0" arrivalPos="0.20" arrivalSpeed="17.90" duration="214.00" routeLength="3338.44" waitingTime="19.00" waitingCount="4" stopTime="0.00" timeLoss="71.45" rerouteNo="1" devices="tripinfo_97 routing_97" vType="DEFAULT_VEHTYPE" speedFactor="0.91" vaporized=""/>
    <tripinfo id="45" depart="57.00" departLane="-62080947#0_0" departPos="5.10" departSpeed="0.00" departDelay="0.52" arrival="340.00" arrivalLane="48769273#1-AddedOnRampEdge_1" arrivalPos="95.35" arrivalSpeed="14.12" duration="283.00" routeLength="2331.51" waitingTime="112.00" waitingCount="4" stopTime="0.00" timeLoss="165.50" rerouteNo="1" devices="tripinfo_45 routing_45" vType="DEFAULT_VEHTYPE" speedFactor="1.09" vaporized=""/>
    <tripinfo id="74" depart="97.00" departLane="101898714#1_0" departPos="5.10" departSpeed="0.00" departDelay="0.49" arrival="343.00" arrivalLane="188725039#1_0" arrivalPos="60.73" arrivalSpeed="12.51" duration="246.00" routeLength="1972.11" waitingTime="72.00" waitingCount="4" stopTime="0.00" timeLoss="115.66" rerouteNo="1" devices="tripinfo_74 routing_74" vType="DEFAULT_VEHTYPE" speedFactor="0.96" vaporized=""/>
    <tripinfo id="130" depart="161.00" departLane="183865668#1_0" departPos="5.10" departSpeed="0.00" departDelay="0.12" arrival="345.00" arrivalLane="33072357#1_0" arrivalPos="870.64" arrivalSpeed="28.28" duration="184.00" routeLength="2340.50" waitingTime="28.00" waitingCount="5" stopTime="0.00" timeLoss="88.49" rerouteNo="1" devices="tripinfo_130 routing_130" vType="DEFAULT_VEHTYPE" speedFactor="1.03" vaporized=""/>
    <tripinfo id="35" depart="45.00" departLane="78380844#1_0" departPos="5.10" departSpeed="0.00" departDelay="0.87" arrival="361.00" arrivalLane="73750324#1_0" arrivalPos="62.85" arrivalSpeed="13.57" duration="316.00" routeLength="4471.91" waitingTime="38.00" waitingCount="3" stopTime="0.00" timeLoss="100.90" rerouteNo="1" devices="tripinfo_35 routing_35" vType="DEFAULT_VEHTYPE" speedFactor="1.02" vaporized=""/>
    <tripinfo id="132" depart="163.00" departLane="-101895798#1_0" departPos="5.10" departSpeed="0.00" departDelay="0.56" arrival="362.00" arrivalLane="188725039#0_0" arrivalPos="30.51" arrivalSpeed="12.03" duration="199.00" routeLength="1642.62" waitingTime="50.00" waitingCount="2" stopTime="0.00" timeLoss="78.52" rerouteNo="0" devices="tripinfo_132 routing_132" vType="DEFAULT_VEHTYPE" speedFactor="0.96" vaporized=""/>
    <tripinfo id="146" depart="187.00" departLane="242316143_0" departPos="5.10" departSpeed="0.00" departDelay="0.08" arrival="362.00" arrivalLane="449379853#1_0" arrivalPos="7.70" arrivalSpeed="11.15" duration="175.00" routeLength="1143.22" waitingTime="58.00" waitingCount="5" stopTime="0.00" timeLoss="98.91" rerouteNo="1" devices="tripinfo_146 routing_146" vType="DEFAULT_VEHTYPE" speedFactor="0.89" vaporized=""/>
    <tripinfo id="82" depart="107.00" departLane="183397040#0_0" departPos="5.10" departSpeed="0.00" departDelay="0.22" arrival="364.00" arrivalLane="33072357#1_0" arrivalPos="870.64" arrivalSpeed="27.32" duration="257.00" routeLength="2747.55" waitingTime="51.00" waitingCount="6" stopTime="0.00" timeLoss="109.67" rerouteNo="1" devices="tripinfo_82 routing_82" vType="DEFAULT_VEHTYPE" speedFactor="1.02" vaporized=""/>
    <tripinfo id="170" depart="215.00" departLane="242316143_0" departPos="5.10" departSpeed="0.00" departDelay="0.64" arrival="364.00" arrivalLane="449379853#1_0" arrivalPos="7.70" arrivalSpeed="13.55" duration="149.00" routeLength="1143.22" waitingTime="42.00" waitingCount="3" stopTime="0.00" timeLoss="87.03" rerouteNo="1" devices="tripinfo_170 routing_170" vType="DEFAULT_VEHTYPE" speedFactor="1.09" vaporized=""/>
    <tripinfo id="211" depart="258.00" departLane="242316143_0" departPos="5.10" departSpeed="0.00" departDelay="0.42" arrival="372.00" arrivalLane="449379853#1_0" arrivalPos="7.70" arrivalSpeed="12.49" duration="114.00" routeLength="1143.22" waitingTime="15.00" waitingCount="2" stopTime="0.00" timeLoss="48.53" rerouteNo="1" devices="tripinfo_211 routing_211" vType="DEFAULT_VEHTYPE" speedFactor="1.04" vaporized=""/>
    <tripinfo id="156" depart="199.00" departLane="158978976#18_0" departPos="0.20" departSpeed="0.00" departDelay="0.07" arrival="373.00" arrivalLane="75844260#2_0" arrivalPos="152.69" arrivalSpeed="15.19" duration="174.00" routeLength="2007.15" waitingTime="19.00" waitingCount="3" stopTime="0.00" timeLoss="65.77" rerouteNo="0" devices="tripinfo_156 routing_156" vType="DEFAULT_VEHTYPE" speedFactor="1.18" vaporized=""/>
    <tripinfo id="81" depart="106.00" departLane="696614541#2-AddedOnRampEdge_0" departPos="5.10" departSpeed="0.00" departDelay="0.67" arrival="375.00" arrivalLane="-23766844#4_0" arrivalPos="129.46" arrivalSpeed="21.30" duration="269.00" routeLength="3428.33" waitingTime="48.00" waitingCount="6" stopTime="0.00" timeLoss="120.96" rerouteNo="1" devices="tripinfo_81 routing_81" vType="DEFAULT_VEHTYPE" speedFactor="1.00" vaporized=""/>
    <tripinfo id="2" depart="3.00" departLane="449379871_0" departPos="0.20" departSpeed="0.00" departDelay="0.77" arrival="389.00" arrivalLane="506599431#0_0" arrivalPos="102.16" arrivalSpeed="20.48" duration="386.00" routeLength="2634.26" waitingTime="177.00" waitingCount="8" stopTime="0.00" timeLoss="260.17" rerouteNo="1" devices="tripinfo_2 routing_2" vType="DEFAULT_VEHTYPE" speedFactor="1.01" vaporized=""/>
    <tripinfo id="32" depart="43.00" departLane="-311860248#0_0" departPos="5.10" departSpeed="0.00" departDelay="0.28" arrival="389.00" arrivalLane="51813029#13_0" arrivalPos="144.73" arrivalSpeed="13.19" duration="346.00" routeLength="3480.20" waitingTime="101.00" waitingCount="5" stopTime="0.00" timeLoss="158.23" rerouteNo="0" devices="tripinfo_32 routing_32" vType="DEFAULT_VEHTYPE" speedFactor="1.01" vaporized=""/>
    <tripinfo id="37" depart="47.00" departLane="90590336#3_0" departPos="2.28" departSpeed="0.00" departDelay="0.28" arrival="389.00" arrivalLane="-158758833#1_0" arrivalPos="47.55" arrivalSpeed="15.98" duration="342.00" routeLength="2820.67" waitingTime="78.00" waitingCount="6" stopTime="0.00" timeLoss="168.58" rerouteNo="0" devices="tripinfo_37 routing_37" vType="DEFAULT_VEHTYPE" speedFactor="1.18" vaporized=""/>
    <tripinfo id="98" depart="125.00" departLane="183397040#0_0" departPos="5.10" departSpeed="0.00" departDelay="0.48" arrival="398.00" arrivalLane="33072357#1_0" arrivalPos="870.64" arrivalSpeed="30.19" duration="273.00" routeLength="2747.55" waitingTime="75.00" waitingCount="5" stopTime="0.00" timeLoss="138.67" rerouteNo="1" devices="tripinfo_98 routing_98" vType="DEFAULT_VEHTYPE" speedFactor="1.12" vaporized=""/>
    <tripinfo id="122" depart="155.00" departLane="49788433#4_0" departPos="5.10" departSpeed="0.00" departDelay="0.63" arrival="401.00" arrivalLane="-189781450#0_0" arrivalPos="58.55" arrivalSpeed="13.95" duration="246.00" routeLength="2372.28" waitingTime="23.00" waitingCount="6" stopTime="0.00" timeLoss="78.14" rerouteNo="1" devices="tripinfo_122 routing_122" vType="DEFAULT_VEHTYPE" speedFactor="1.03" vaporized=""/>
    <tripinfo id="138" depart="173.00" departLane="183397040#0_0" departPos="5.10" departSpeed="0.00" departDelay="0.48" arrival="402.00" arrivalLane="33072357#1_0" arrivalPos="870.64" arrivalSpeed="27.87" duration="229.00" routeLength="2747.55" waitingTime="27.00" waitingCount="3" stopTime="0.00" timeLoss="79.27" rerouteNo="1" devices="tripinfo_138 routing_138" vType="DEFAULT_VEHTYPE" speedFactor="1.00" vaporized=""/>
    <tripinfo id="228" depart="293.00" departLane="-188725041#0_0" departPos="0.20" departSpeed="0.00" departDelay="12.68" arrival="402.00" arrivalLane="75258655#3_1" arrivalPos="75.33" arrivalSpeed="14.19" duration="109.00" routeLength="863.97" waitingTime="21.00" waitingCount="2" stopTime="0.00" timeLoss="51.85" rerouteNo="0" devices="tripinfo_228 routing_228" vType="DEFAULT_VEHTYPE" speedFactor="1.09" vaporized=""/>
    <tripinfo id="83" depart="108.00" departLane="78380834_0" departPos="5.10" departSpeed="0.00" departDelay="0.65" arrival="406.00" arrivalLane="-244450531#2_0" arrivalPos="22.85" arrivalSpeed="13.86" duration="298.00" routeLength="4360.84" waitingTime="54.00" waitingCount="4" stopTime="0.00" timeLoss="115.24" rerouteNo="1" devices="tripinfo_83 routing_83" vType="DEFAULT_VEHTYPE" speedFactor="0.97" vaporized=""/>
    <tripinfo id="43" depart="56.00" departLane="-492566966_0" departPos="5.10" departSpeed="0.00" departDelay="0.58" arrival="408.00" arrivalLane="-75829484#7_0" arrivalPos="105.22" arrivalSpeed="13.44" duration="352.00" routeLength="4101.37" waitingTime="67.00" waitingCount="2" stopTime="0.00" timeLoss="140.80" rerouteNo="1" devices="tripinfo_43 routing_43" vType="DEFAULT_VEHTYPE" speedFactor="1.04" vaporized=""/>
    <tripinfo id="137" depart="172.00" departLane="101898714#1_0" departPos="5.10" departSpeed="0.00" departDelay="0.60" arrival="416.00" arrivalLane="188725039#1_0" arrivalPos="60.73" arrivalSpeed="13.75" duration="244.00" routeLength="1972.11" waitingTime="72.00" waitingCount="5" stopTime="0.00" timeLoss="121.57" rerouteNo="1" devices="tripinfo_137 routing_137" vType="DEFAULT_VEHTYPE" speedFactor="1.02" vaporized=""/>
    <tripinfo id="58" depart="70.00" departLane="243905113#1_0" departPos="5.10" departSpeed="0.00" departDelay="0.40" arrival="417.00" arrivalLane="-72452071#4_0" arrivalPos="4.23" arrivalSpeed="13.42" duration="347.00" routeLength="2594.53" waitingTime="98.00" waitingCount="10" stopTime="0.00" timeLoss="207.60" rerouteNo="0" devices="tripinfo_58 routing_58" vType="DEFAULT_VEHTYPE" speedFactor="1.02" vaporized=""/>
    <tripinfo id="47" depart="59.00" departLane="-832873499_0" departPos="5.10" departSpeed="0.00" departDelay="0.67" arrival="425.00" arrivalLane="75844260#1_0" arrivalPos="154.14" arrivalSpeed="12.07" duration="366.00" routeLength="4109.15" waitingTime="47.00" waitingCount="6" stopTime="0.00" timeLoss="129.09" rerouteNo="0" devices="tripinfo_47 routing_47" vType="DEFAULT_VEHTYPE" speedFactor="0.90" vaporized=""/>
    <tripinfo id="60" depart="73.00" departLane="78380844#0_0" departPos="0.20" departSpeed="0.00" departDelay="0.35" arrival="426.00" arrivalLane="72581708#7_0" arrivalPos="50.55" arrivalSpeed="13.99" duration="353.00" routeLength="4038.87" waitingTime="70.00" waitingCount="4" stopTime="0.00" timeLoss="149.86" rerouteNo="0" devices="tripinfo_60 routing_60" vType="DEFAULT_VEHTYPE" speedFactor="1.08" vaporized=""/>
    <tripinfo id="39" depart="53.00" departLane="-492566966_0" departPos="5.10" departSpeed="0.00" departDelay="0.78" arrival="429.00" arrivalLane="-75829484#7_0" arrivalPos="105.22" arrivalSpeed="11.64" duration="376.00" routeLength="4101.37" waitingTime="74.00" waitingCount="3" stopTime="0.00" timeLoss="129.76" rerouteNo="1" devices="tripinfo_39 routing_39" vType="DEFAULT_VEHTYPE" speedFactor="0.90" vaporized=""/>
    <tripinfo id="44" depart="56.00" departLane="-771338305#1_0" departPos="5.10" departSpeed="0.00" departDelay="0.34" arrival="431.00" arrivalLane="316690655#5_0" arrivalPos="98.24" arrivalSpeed="20.73" duration="375.00" routeLength="4144.08" waitingTime="63.00" waitingCount="9" stopTime="0.00" timeLoss="192.25" rerouteNo="1" devices="tripinfo_44 routing_44" vType="DEFAULT_VEHTYPE" speedFactor="1.04" vaporized=""/>
    <tripinfo id="192" depart="239.00" departLane="244450529#2_0" departPos="5.10" departSpeed="0.00" departDelay="0.05" arrival="434.00" arrivalLane="311139734#3_0" arrivalPos="38.32" arrivalSpeed="13.47" duration="195.00" routeLength="1801.37" waitingTime="46.00" waitingCount="3" stopTime="0.00" timeLoss="92.32" rerouteNo="1" devices="tripinfo_192 routing_192" vType="DEFAULT_VEHTYPE" speedFactor="1.10" vaporized=""/>
    <tripinfo id="133" depart="164.00" departLane="-1257895203#12_0" departPos="0.20" departSpeed="0.00" departDelay="0.65" arrival="436.00" arrivalLane="48769273#1_0" arrivalPos="42.80" arrivalSpeed="13.47" duration="272.00" routeLength="2396.36" waitingTime="96.00" waitingCount="5" stopTime="0.00" timeLoss="147.94" rerouteNo="1" devices="tripinfo_133 routing_133" vType="DEFAULT_VEHTYPE" speedFactor="1.04" vaporized=""/>
    <tripinfo id="6" depart="9.00" departLane="319203388#11_0" departPos="5.10" departSpeed="0.00" departDelay="0.75" arrival="439.00" arrivalLane="252494919#1_1" arrivalPos="62.89" arrivalSpeed="20.65" duration="430.00" routeLength="2796.63" waitingTime="232.00" waitingCount="8" stopTime="0.00" timeLoss="330.83" rerouteNo="1" devices="tripinfo_6 routing_6" vType="DEFAULT_VEHTYPE" speedFactor="1.05" vaporized=""/>
    <tripinfo id="221" depart="269.00" departLane="242316143_0" departPos="5.10" departSpeed="0.00" departDelay="0.07" arrival="440.00" arrivalLane="449379853#1_0" arrivalPos="7.70" arrivalSpeed="11.76" duration="171.00" routeLength="1143.22" waitingTime="73.00" waitingCount="2" stopTime="0.00" timeLoss="112.51" rerouteNo="1" devices="tripinfo_221 routing_221" vType="DEFAULT_VEHTYPE" speedFactor="1.15" vaporized=""/>
    <tripinfo id="22" depart="30.00" departLane="78380834_0" departPos="5.10" departSpeed="0.00" departDelay="0.76" arrival="441.00" arrivalLane="-316842893#11_0" arrivalPos="133.01" arrivalSpeed="21.56" duration="411.00" routeLength="4636.33" waitingTime="93.00" waitingCount="7" stopTime="0.00" timeLoss="179.95" rerouteNo="1" devices="tripinfo_22 routing_22" vType="DEFAULT_VEHTYPE" speedFactor="0.97" vaporized=""/>
    <tripinfo id="93" depart="122.00" departLane="158758834#1_0" departPos="5.10" departSpeed="0.00" departDelay="0.59" arrival="441.00" arrivalLane="258599306#0_0" arrivalPos="54.18" arrivalSpeed="12.31" duration="319.00" routeLength="2281.42" waitingTime="84.00" waitingCount="9" stopTime="0.00" timeLoss="163.37" rerouteNo="1" devices="tripinfo_93 routing_93" vType="DEFAULT_VEHTYPE" speedFactor="0.92" vaporized=""/>
    <tripinfo id="127" depart="158.00" departLane="183397040#0_0" departPos="5.10" departSpeed="0.00" departDelay="0.67" arrival="447.00" arrivalLane="33072357#1_0" arrivalPos="870.64" arrivalSpeed="21.55" duration="289.00" routeLength="2747.55" waitingTime="51.00" waitingCount="6" stopTime="0.00" timeLoss="106.13" rerouteNo="1" devices="tripinfo_127 routing_127" vType="DEFAULT_VEHTYPE" speedFactor="0.82" vaporized=""/>
    <tripinfo id="157" depart="200.00" departLane="183397040#0_0" departPos="5.10" departSpeed="0.00" departDelay="0.38" arrival="448.00" arrivalLane="33072357#1_0" arrivalPos="870.64" arrivalSpeed="24.33" duration="248.00" routeLength="2747.55" waitingTime="31.00" waitingCount="6" stopTime="0.00" timeLoss="108.70" rerouteNo="1" devices="tripinfo_157 routing_157" vType="DEFAULT_VEHTYPE" speedFactor="1.08" vaporized=""/>
    <tripinfo id="90" depart="117.00" departLane="-255891223_0" departPos="5.10" departSpeed="0.00" departDelay="0.58" arrival="449.00" arrivalLane="48769273#1_0" arrivalPos="42.80" arrivalSpeed="13.81" duration="332.00" routeLength="3659.09" waitingTime="55.00" waitingCount="6" stopTime="0.00" timeLoss="142.57" rerouteNo="1" devices="tripinfo_90 routing_90" vType="DEFAULT_VEHTYPE" speedFactor="1.02" vaporized=""/>
    <tripinfo id="225" depart="274.00" departLane="242316143_0" departPos="5.10" departSpeed="0.00" departDelay="0.42" arrival="453.00" arrivalLane="449379853#1_0" arrivalPos="7.70" arrivalSpeed="6.53" duration="179.00" routeLength="1143.22" waitingTime="66.00" waitingCount="4" stopTime="0.00" timeLoss="109.77" rerouteNo="1" devices="tripinfo_225 routing_225" vType="DEFAULT_VEHTYPE" speedFactor="0.97" vaporized=""/>
    <tripinfo id="244" depart="294.00" departLane="242316143_0" departPos="5.10" departSpeed="0.00" departDelay="0.96" arrival="455.00" arrivalLane="449379853#1_0" arrivalPos="7.70" arrivalSpeed="9.07" duration="161.00" routeLength="1143.22" waitingTime="46.00" waitingCount="3" stopTime="0.00" timeLoss="94.58" rerouteNo="1" devices="tripinfo_244 routing_244" vType="DEFAULT_VEHTYPE" speedFactor="1.02" vaporized=""/>
    <tripinfo id="76" depart="98.00" departLane="26793808_0" departPos="5.10" departSpeed="0.00" departDelay="0.05" arrival="463.00" arrivalLane="730830605#1_0" arrivalPos="12.42" arrivalSpeed="8.62" duration="365.00" routeLength="3304.86" waitingTime="76.00" waitingCount="10" stopTime="0.00" timeLoss="212.28" rerouteNo="1" devices="tripinfo_76 routing_76" vType="DEFAULT_VEHTYPE" speedFactor="1.03" vaporized=""/>
    <tripinfo id="113" depart="144.00" departLane="-255891223_0" departPos="5.10" departSpeed="0.00" departDelay="0.86" arrival="463.00" arrivalLane="48769273#1_0" arrivalPos="42.80" arrivalSpeed="12.90" duration="319.00" routeLength="3659.09" waitingTime="38.00" waitingCount="7" stopTime="0.00" timeLoss="128.08" rerouteNo="0" devices="tripinfo_113 routing_113" vType="DEFAULT_VEHTYPE" speedFactor="1.01" vaporized=""/>
    <tripinfo id="201" depart="252.00" departLane="183865668#1_0" departPos="5.10" departSpeed="0.00" departDelay="0.13" arrival="464.00" arrivalLane="33072357#1_0" arrivalPos="870.64" arrivalSpeed="23.68" duration="212.00" routeLength="2340.50" waitingTime="52.00" waitingCount="4" stopTime="0.00" timeLoss="99.90" rerouteNo="1" devices="tripinfo_201 routing_201" vType="DEFAULT_VEHTYPE" speedFactor="0.87" vaporized=""/>
    <tripinfo id="218" depart="265.00" departLane="183865668#1_0" departPos="5.10" departSpeed="0.00" departDelay="0.70" arrival="465.00" arrivalLane="33072357#1_0" arrivalPos="870.64" arrivalSpeed="25.40" duration="200.00" routeLength="2340.50" waitingTime="44.00" waitingCount="3" stopTime="0.00" timeLoss="107.65" rerouteNo="1" devices="tripinfo_218 routing_218" vType="DEFAULT_VEHTYPE" speedFactor="1.07" vaporized=""/>